! AWR Design Environment (9138) Thu Jan  4 20:23:24 2024
! Document = 'LPF_48000_MHz_12_radial'
! nPorts: 2, nXvals: 801

# MHz S DB R 50
!Freq DBS11 AngS11 DBS21 AngS21 DBS12 AngS12 DBS22 AngS22 
0 -49.590052 -64.797075 -0.012387583 -0.17213123 -0.012387583 -0.17213123 -49.587922 -64.803736 
18.75 -52.181635 47.53955 -0.018567587 -2.4380282 -0.018567587 -2.4380282 -52.160303 47.284127 
37.5 -48.385732 61.636128 -0.022966908 -4.8606245 -0.022966908 -4.8606245 -48.352942 60.936031 
56.25 -45.618542 67.110393 -0.027091495 -7.2805232 -0.027091495 -7.2805232 -45.583873 65.947519 
75 -43.508175 69.289923 -0.031130466 -9.6988427 -0.031130466 -9.6988427 -43.475378 67.665207 
93.75 -41.824174 69.902177 -0.035150336 -12.115991 -0.035150336 -12.115991 -41.79493 67.816703 
112.5 -40.434955 69.654671 -0.039178244 -14.53217 -0.039178244 -14.53217 -40.410126 67.108355 
131.25 -39.260963 68.888804 -0.043223943 -16.947502 -0.043223943 -16.947502 -39.241047 65.880714 
150 -38.251007 67.789363 -0.047288304 -19.362075 -0.047288304 -19.362075 -38.236331 64.318076 
168.75 -37.370364 66.464985 -0.051367487 -21.775971 -0.051367487 -21.775971 -37.361176 62.528859 
187.5 -36.594451 64.983539 -0.055455294 -24.189264 -0.055455294 -24.189264 -36.590966 60.580909 
206.25 -35.90525 63.389378 -0.059544606 -26.602034 -0.059544606 -26.602034 -35.907674 58.518701 
225 -35.28918 61.712486 -0.063628265 -29.014361 -0.063628265 -29.014361 -35.297723 56.372451 
243.75 -34.735769 59.973654 -0.067699606 -31.426331 -0.067699606 -31.426331 -34.75065 54.163261 
262.5 -34.236791 58.187572 -0.071752748 -33.838027 -0.071752748 -33.838027 -34.25824 51.906198 
281.25 -33.785687 56.364777 -0.075782719 -36.249536 -0.075782719 -36.249536 -33.813941 49.612223 
300 -33.37716 54.512909 -0.079785478 -38.660941 -0.079785478 -38.660941 -33.412463 47.289435 
318.75 -33.00689 52.637554 -0.083757865 -41.072325 -0.083757865 -41.072325 -33.049488 44.943909 
337.5 -32.671321 50.742827 -0.087697517 -43.483768 -0.087697517 -43.483768 -32.721462 42.580274 
356.25 -32.367512 48.831775 -0.09160276 -45.895349 -0.09160276 -45.895349 -32.425438 40.20211 
375 -32.09301 46.906662 -0.095472506 -48.307142 -0.095472506 -48.307142 -32.158958 37.812238 
393.75 -31.845767 44.969179 -0.099306144 -50.719218 -0.099306144 -50.719218 -31.919966 35.412923 
412.5 -31.624067 43.020588 -0.10310345 -53.131645 -0.10310345 -53.131645 -31.706733 33.00603 
431.25 -31.42647 41.061831 -0.10686451 -55.544491 -0.10686451 -55.544491 -31.517807 30.593132 
450 -31.251769 39.093608 -0.11058964 -57.957816 -0.11058964 -57.957816 -31.351965 28.175594 
468.75 -31.098957 37.116433 -0.11427935 -60.371683 -0.11427935 -60.371683 -31.208185 25.754635 
487.5 -30.967197 35.130678 -0.11793427 -62.78615 -0.11793427 -62.78615 -31.085611 23.331379 
506.25 -30.855802 33.136597 -0.12155515 -65.201273 -0.12155515 -65.201273 -30.983535 20.906894 
525 -30.764217 31.13435 -0.12514283 -67.617107 -0.12514283 -67.617107 -30.901382 18.482216 
543.75 -30.692005 29.124016 -0.1286982 -70.033706 -0.1286982 -70.033706 -30.838691 16.058384 
562.5 -30.638835 27.105602 -0.1322222 -72.451121 -0.1322222 -72.451121 -30.795106 13.636457 
581.25 -30.604477 25.079046 -0.13571584 -74.869403 -0.13571584 -74.869403 -30.770369 11.217534 
600 -30.588795 23.044225 -0.13918014 -77.288603 -0.13918014 -77.288603 -30.764313 8.8027781 
618.75 -30.59174 21.000946 -0.14261621 -79.708769 -0.14261621 -79.708769 -30.776855 6.3934346 
637.5 -30.613352 18.948947 -0.14602515 -82.12995 -0.14602515 -82.12995 -30.807998 3.9908525 
656.25 -30.653759 16.887891 -0.14940813 -84.552194 -0.14940813 -84.552194 -30.857826 1.5965091 
675 -30.713177 14.817358 -0.15276639 -86.975547 -0.15276639 -86.975547 -30.926503 -0.78796297 
693.75 -30.791912 12.736831 -0.15610117 -89.400055 -0.15610117 -89.400055 -31.01428 -3.1607443 
712.5 -30.890367 10.645686 -0.15941381 -91.825766 -0.15941381 -91.825766 -31.121492 -5.5197916 
731.25 -31.009051 8.5431721 -0.16270567 -94.252723 -0.16270567 -94.252723 -31.248569 -7.8627931 
750 -31.148582 6.4283892 -0.16597818 -96.680971 -0.16597818 -96.680971 -31.396034 -10.187114 
768.75 -31.309703 4.3002602 -0.16923282 -99.110556 -0.16923282 -99.110556 -31.564519 -12.489734 
787.5 -31.493296 2.1574952 -0.17247113 -101.54152 -0.17247113 -101.54152 -31.75477 -14.767158 
806.25 -31.700403 -0.0014533205 -0.17569469 -103.97391 -0.17569469 -103.97391 -31.967659 -17.015325 
825 -31.932245 -2.1784488 -0.17890513 -106.40776 -0.17890513 -106.40776 -32.204205 -19.229474 
843.75 -32.190253 -4.3757453 -0.18210413 -108.84311 -0.18210413 -108.84311 -32.465584 -21.403984 
862.5 -32.476108 -6.5960851 -0.18529342 -111.28002 -0.18529342 -111.28002 -32.753157 -23.532167 
881.25 -32.791783 -8.842828 -0.18847475 -113.71851 -0.18847475 -113.71851 -33.06849 -25.606002 
900 -33.139607 -11.120125 -0.19164989 -116.15863 -0.19164989 -116.15863 -33.413391 -27.615785 
918.75 -33.522338 -13.433151 -0.19482065 -118.60042 -0.19482065 -118.60042 -33.789942 -29.549668 
937.5 -33.943266 -15.788434 -0.19798884 -121.04391 -0.19798884 -121.04391 -34.200541 -31.393043 
956.25 -34.406341 -18.194305 -0.20115627 -123.48915 -0.20115627 -123.48915 -34.647948 -33.127708 
975 -34.91635 -20.66156 -0.20432477 -125.93617 -0.20432477 -125.93617 -35.135336 -34.730729 
993.75 -35.479155 -23.20441 -0.20749611 -128.38501 -0.20749611 -128.38501 -35.666338 -36.172859 
1012.5 -36.102018 -25.841933 -0.21067206 -130.83569 -0.21067206 -130.83569 -36.245082 -37.416323 
1031.25 -36.794062 -28.600306 -0.21385436 -133.28827 -0.21385436 -133.28827 -36.876184 -38.411673 
1050 -37.56693 -31.516385 -0.21704469 -135.74277 -0.21704469 -135.74277 -37.564663 -39.09329 
1068.75 -38.435744 -34.643667 -0.22024468 -138.19923 -0.22024468 -138.19923 -38.315649 -39.372931 
1087.5 -39.420535 -38.062664 -0.22345589 -140.65767 -0.22345589 -140.65767 -39.133707 -39.130556 
1106.25 -40.548407 -41.899939 -0.22667979 -143.11814 -0.22667979 -143.11814 -40.021325 -38.201721 
1125 -41.856752 -46.365279 -0.22991779 -145.58067 -0.22991779 -145.58067 -40.975785 -36.361847 
1143.75 -43.397696 -51.829649 -0.23317118 -148.04528 -0.23317118 -148.04528 -41.982933 -33.311804 
1162.5 -45.24188 -59.00202 -0.23644115 -150.51201 -0.23644115 -150.51201 -43.005812 -28.681796 
1181.25 -47.466815 -69.356391 -0.23972878 -152.98089 -0.23972878 -152.98089 -43.967515 -22.099193 
1200 -50.040513 -86.087987 -0.24303504 -155.45195 -0.24303504 -155.45195 -44.736973 -13.399366 
1218.75 -52.229159 -114.3517 -0.24636075 -157.92523 -0.24636075 -157.92523 -45.148208 -2.9899686 
1237.5 -52.055077 -150.42743 -0.24970662 -160.40074 -0.24970662 -160.40074 -45.08377 7.9532744 
1256.25 -49.713613 -177.2878 -0.25307321 -162.87854 -0.25307321 -162.87854 -44.565522 17.9532 
1275 -47.134745 166.90004 -0.25646094 -165.35864 -0.25646094 -165.35864 -43.736021 26.037821 
1293.75 -44.924183 157.00409 -0.2598701 -167.84107 -0.2598701 -167.84107 -42.757043 31.99941 
1312.5 -43.087504 150.07484 -0.26330082 -170.32588 -0.26330082 -170.32588 -41.744075 36.093856 
1331.25 -41.545861 144.75435 -0.26675309 -172.81308 -0.26675309 -172.81308 -40.760866 38.706548 
1350 -40.230628 140.38387 -0.27022676 -175.30272 -0.27022676 -175.30272 -39.836465 40.19006 
1368.75 -39.091536 136.6157 -0.27372155 -177.79483 -0.27372155 -177.79483 -38.980975 40.821404 
1387.5 -38.092532 133.25178 -0.27723703 179.71056 -0.27723703 179.71056 -38.195257 40.806366 
1406.25 -37.207453 130.17192 -0.28077263 177.21341 -0.28077263 177.21341 -37.476089 40.295227 
1425 -36.416929 127.29935 -0.28432768 174.71369 -0.28432768 174.71369 -36.818729 39.397792 
1443.75 -35.706321 124.58293 -0.28790138 172.21137 -0.28790138 172.21137 -36.218121 38.194971 
1462.5 -35.064351 121.98735 -0.2914928 169.70639 -0.2914928 169.70639 -35.669439 36.747106 
1481.25 -34.48218 119.48756 -0.29510095 167.19873 -0.29510095 167.19873 -35.168303 35.099791 
1500 -33.952773 117.06534 -0.29872471 164.68834 -0.29872471 164.68834 -34.710834 33.287933 
1518.75 -33.470463 114.70716 -0.30236292 162.17519 -0.30236292 162.17519 -34.293648 31.338599 
1537.5 -33.030627 112.40285 -0.30601433 159.65922 -0.30601433 159.65922 -33.913818 29.27302 
1556.25 -32.629465 110.14464 -0.30967764 157.1404 -0.30967764 157.1404 -33.56882 27.108029 
1575 -32.263825 107.92655 -0.31335152 154.61867 -0.31335152 154.61867 -33.256494 24.8571 
1593.75 -31.931079 105.74397 -0.31703463 152.094 -0.31703463 152.094 -32.974991 22.531108 
1612.5 -31.629026 103.59333 -0.32072559 149.56632 -0.32072559 149.56632 -32.722743 20.138893 
1631.25 -31.355818 101.47191 -0.32442307 147.0356 -0.32442307 147.0356 -32.498423 17.687678 
1650 -31.1099 99.377627 -0.32812572 144.50177 -0.32812572 144.50177 -32.300922 15.183394 
1668.75 -30.889972 97.308982 -0.33183228 141.96479 -0.33183228 141.96479 -32.129327 12.630913 
1687.5 -30.694944 95.264937 -0.3355415 139.4246 -0.3355415 139.4246 -31.9829 10.034243 
1706.25 -30.523917 93.244864 -0.33925224 136.88113 -0.33925224 136.88113 -31.861066 7.3966624 
1725 -30.376155 91.24851 -0.34296343 134.33434 -0.34296343 134.33434 -31.763401 4.7208334 
1743.75 -30.251072 89.275963 -0.34667411 131.78416 -0.34667411 131.78416 -31.689626 2.0088842 
1762.5 -30.148213 87.327644 -0.35038345 129.23054 -0.35038345 129.23054 -31.639602 -0.73752984 
1781.25 -30.067251 85.4043 -0.35409075 126.6734 -0.35409075 126.6734 -31.613326 -3.5171814 
1800 -30.00797 83.507016 -0.35779545 124.11268 -0.35779545 124.11268 -31.610935 -6.3292424 
1818.75 -29.97027 81.637233 -0.36149715 121.54831 -0.36149715 121.54831 -31.632708 -9.1732683 
1837.5 -29.954155 79.796772 -0.36519564 118.98024 -0.36519564 118.98024 -31.679075 -12.049197 
1856.25 -29.959735 77.987881 -0.36889089 116.40839 -0.36889089 116.40839 -31.750623 -14.957359 
1875 -29.987225 76.213283 -0.37258304 113.83268 -0.37258304 113.83268 -31.848116 -17.898507 
1893.75 -30.036949 74.476251 -0.37627245 111.25306 -0.37627245 111.25306 -31.972513 -20.873858 
1912.5 -30.10934 72.780693 -0.3799597 108.66945 -0.3799597 108.66945 -32.124989 -23.885159 
1931.25 -30.204945 71.131263 -0.38364554 106.08177 -0.38364554 106.08177 -32.306971 -26.934781 
1950 -30.324433 69.533506 -0.38733097 103.48996 -0.38733097 103.48996 -32.520181 -30.025849 
1968.75 -30.468596 67.994035 -0.39101719 100.89394 -0.39101719 100.89394 -32.766683 -33.162414 
1987.5 -30.638364 66.520755 -0.39470561 98.293635 -0.39470561 98.293635 -33.048958 -36.349705 
2006.25 -30.834807 65.12315 -0.39839786 95.688976 -0.39839786 95.688976 -33.369989 -39.594463 
2025 -31.059142 63.812655 -0.40209578 93.079886 -0.40209578 93.079886 -33.733379 -42.90542 
2043.75 -31.31274 62.603117 -0.40580138 90.466291 -0.40580138 90.466291 -34.143504 -46.293991 
2062.5 -31.597121 61.511409 -0.40951689 87.848118 -0.40951689 87.848118 -34.605722 -49.775265 
2081.25 -31.913943 60.558215 -0.41324471 85.225293 -0.41324471 85.225293 -35.126654 -53.369501 
2100 -32.264973 59.769045 -0.4169874 82.597741 -0.4169874 82.597741 -35.714572 -57.104419 
2118.75 -32.652022 59.175563 -0.42074767 79.96539 -0.42074767 79.96539 -36.379939 -61.018807 
2137.5 -33.076828 58.817299 -0.42452837 77.328167 -0.42452837 77.328167 -37.136184 -65.168437 
2156.25 -33.540848 58.74382 -0.42833246 74.685999 -0.42833246 74.685999 -38.00079 -69.636141 
2175 -34.044891 59.017435 -0.43216299 72.038815 -0.43216299 72.038815 -38.99684 -74.549772 
2193.75 -34.588511 59.71634 -0.4360231 69.386545 -0.4360231 69.386545 -40.155077 -80.116009 
2212.5 -35.168984 60.937821 -0.43991594 66.729117 -0.43991594 66.729117 -41.516064 -86.687649 
2231.25 -35.779685 62.80039 -0.44384472 64.066462 -0.44384472 64.066462 -43.129684 -94.905198 
2250 -36.40762 65.442186 -0.44781263 61.398511 -0.44781263 61.398511 -45.038238 -106.0012 
2268.75 -37.030025 69.010306 -0.45182281 58.725196 -0.45182281 58.725196 -47.181778 -122.35835 
2287.5 -37.610624 73.632334 -0.45587838 56.04645 -0.45587838 56.04645 -49.037458 -147.41398 
2306.25 -38.097652 79.360952 -0.45998232 53.362206 -0.45998232 53.362206 -49.273658 -179.66798 
2325 -38.428031 86.09502 -0.46413755 50.672398 -0.46413755 50.672398 -47.557462 152.46532 
2343.75 -38.542122 93.515094 -0.46834678 47.976959 -0.46834678 47.976959 -45.22608 133.88153 
2362.5 -38.406381 101.10453 -0.4726126 45.275826 -0.4726126 45.275826 -43.051196 121.53112 
2381.25 -38.029506 108.28988 -0.47693734 42.568933 -0.47693734 42.568933 -41.1728 112.60038 
2400 -37.458029 114.62141 -0.48132314 39.856214 -0.48132314 39.856214 -39.561836 105.58667 
2418.75 -36.755431 119.86937 -0.48577186 37.137606 -0.48577186 37.137606 -38.167313 99.718083 
2437.5 -35.981483 124.0029 -0.49028507 34.413042 -0.49028507 34.413042 -36.945555 94.577243 
2456.25 -35.181919 127.11254 -0.49486405 31.682458 -0.49486405 31.682458 -35.863096 89.923969 
2475 -34.387318 129.33843 -0.49950972 28.945786 -0.49950972 28.945786 -34.894796 85.611971 
2493.75 -33.616174 130.82622 -0.5042227 26.20296 -0.5042227 26.20296 -34.021667 81.547753 
2512.5 -32.878643 131.7068 -0.50900318 23.453911 -0.50900318 23.453911 -33.229176 77.669104 
2531.25 -32.179594 132.0901 -0.51385104 20.698569 -0.51385104 20.698569 -32.506029 73.93322 
2550 -31.520725 132.06536 -0.51876572 17.936862 -0.51876572 17.936862 -31.843321 70.309828 
2568.75 -30.901915 131.70394 -0.52374631 15.168716 -0.52374631 15.168716 -31.233933 66.777024 
2587.5 -30.322067 131.06255 -0.52879147 12.394055 -0.52879147 12.394055 -30.672103 63.318666 
2606.25 -29.779601 130.18627 -0.53389949 9.6127984 -0.53389949 9.6127984 -30.153122 59.92269 
2625 -29.272755 129.11101 -0.53906829 6.8248648 -0.53906829 6.8248648 -29.6731 56.579988 
2643.75 -28.799745 127.86551 -0.5442954 4.0301678 -0.5442954 4.0301678 -29.2288 53.283647 
2662.5 -28.358864 126.47288 -0.54957799 1.2286174 -0.54957799 1.2286174 -28.817511 50.028414 
2681.25 -27.948527 124.95179 -0.55491294 -1.5798807 -0.55491294 -1.5798807 -28.43695 46.810327 
2700 -27.567292 123.31739 -0.56029678 -4.3954252 -0.56029678 -4.3954252 -28.085187 43.626445 
2718.75 -27.213871 121.582 -0.56572582 -7.2181199 -0.56572582 -7.2181199 -27.760587 40.474651 
2737.5 -26.887123 119.75569 -0.57119609 -10.048074 -0.57119609 -10.048074 -27.46176 37.353517 
2756.25 -26.586056 117.84665 -0.57670348 -12.885402 -0.57670348 -12.885402 -27.187529 34.262199 
2775 -26.309812 115.86155 -0.58224371 -15.730224 -0.58224371 -15.730224 -26.936897 31.200363 
2793.75 -26.057667 113.80577 -0.58781244 -18.582668 -0.58781244 -18.582668 -26.709025 28.168139 
2812.5 -25.829017 111.68363 -0.59340529 -21.442866 -0.59340529 -21.442866 -26.50321 25.166085 
2831.25 -25.623375 109.49849 -0.59901792 -24.310958 -0.59901792 -24.310958 -26.318872 22.195172 
2850 -25.440365 107.25292 -0.60464611 -27.18709 -0.60464611 -27.18709 -26.15554 19.256777 
2868.75 -25.279715 104.94874 -0.6102858 -30.071416 -0.6102858 -30.071416 -26.012837 16.352687 
2887.5 -25.141259 102.58712 -0.61593318 -32.964097 -0.61593318 -32.964097 -25.890477 13.485122 
2906.25 -25.024929 100.16857 -0.62158477 -35.865299 -0.62158477 -35.865299 -25.788252 10.656756 
2925 -24.930756 97.693023 -0.62723751 -38.775198 -0.62723751 -38.775198 -25.706027 7.8707558 
2943.75 -24.858874 95.159804 -0.63288879 -41.693975 -0.63288879 -41.693975 -25.643731 5.1308335 
2962.5 -24.809516 92.567615 -0.63853658 -44.621819 -0.63853658 -44.621819 -25.601353 2.4413036 
2981.25 -24.783022 89.914513 -0.64417949 -47.558924 -0.64417949 -47.558924 -25.57893 -0.19283979 
3000 -24.779838 87.19785 -0.64981684 -50.505492 -0.64981684 -50.505492 -25.576546 -2.7658338 
3018.75 -24.800526 84.414204 -0.65544872 -53.461731 -0.65544872 -53.461731 -25.594314 -5.2710392 
3037.5 -24.845771 81.55927 -0.66107612 -56.427855 -0.66107612 -56.427855 -25.632369 -7.7008144 
3056.25 -24.916385 78.627724 -0.66670089 -59.404083 -0.66670089 -59.404083 -25.690853 -10.046368 
3075 -25.013321 75.613045 -0.6723259 -62.390639 -0.6723259 -62.390639 -25.769887 -12.297589 
3093.75 -25.137682 72.507283 -0.67795502 -65.387751 -0.67795502 -65.387751 -25.869554 -14.442853 
3112.5 -25.290732 69.300753 -0.68359319 -68.395652 -0.68359319 -68.395652 -25.989852 -16.468809 
3131.25 -25.473906 65.981649 -0.68924644 -71.414577 -0.68924644 -71.414577 -26.130651 -18.360146 
3150 -25.688821 62.535531 -0.69492188 -74.444764 -0.69492188 -74.444764 -26.291626 -20.099352 
3168.75 -25.937278 58.944661 -0.70062776 -77.486453 -0.70062776 -77.486453 -26.472165 -21.666495 
3187.5 -26.221257 55.187126 -0.70637339 -80.539885 -0.70637339 -80.539885 -26.671262 -23.039047 
3206.25 -26.542888 51.235692 -0.71216917 -83.605302 -0.71216917 -83.605302 -26.88736 -24.191827 
3225 -26.904398 47.056286 -0.71802647 -86.682943 -0.71802647 -86.682943 -27.118164 -25.097145 
3243.75 -27.307986 42.606002 -0.72395763 -89.77305 -0.72395763 -89.77305 -27.360416 -25.725309 
3262.5 -27.755605 37.830522 -0.72997586 -92.87586 -0.72997586 -92.87586 -27.609616 -26.045674 
3281.25 -28.248556 32.660838 -0.73609509 -95.991609 -0.73609509 -95.991609 -27.859747 -26.028515 
3300 -28.78679 27.009328 -0.74232988 -99.120528 -0.74232988 -99.120528 -28.103009 -25.647985 
3318.75 -29.367712 20.765603 -0.74869528 -102.26285 -0.74869528 -102.26285 -28.329682 -24.886381 
3337.5 -29.984205 13.793503 -0.75520663 -105.41879 -0.75520663 -105.41879 -28.528205 -23.739672 
3356.25 -30.621546 5.9326907 -0.76187939 -108.58858 -0.76187939 -108.58858 -28.68566 -22.223735 
3375 -31.253095 -2.9878908 -0.7687289 -111.77243 -0.7687289 -111.77243 -28.788751 -20.379977 
3393.75 -31.835536 -13.112511 -0.77577022 -114.97055 -0.77577022 -114.97055 -28.825306 -18.278298 
3412.5 -32.306825 -24.484816 -0.78301782 -118.18315 -0.78301782 -118.18315 -28.786066 -16.015175 
3431.25 -32.593147 -36.946048 -0.79048536 -121.41044 -0.79048536 -121.41044 -28.666325 -13.705744 
3450 -32.630231 -50.066723 -0.79818542 -124.65261 -0.79818542 -124.65261 -28.466865 -11.470893 
3468.75 -32.392114 -63.209763 -0.80612925 -127.90986 -0.80612925 -127.90986 -28.193844 -9.4226863 
3487.5 -31.905307 -75.738296 -0.81432646 -131.1824 -0.81432646 -131.1824 -27.857679 -7.652282 
3506.25 -31.234596 -87.223325 -0.82278479 -134.47041 -0.82278479 -134.47041 -27.47133 -6.2232399 
3525 -30.454276 -97.506619 -0.83150985 -137.7741 -0.83150985 -137.7741 -27.048543 -5.1707632 
3543.75 -29.62686 -106.63227 -0.84050487 -141.09368 -0.84050487 -141.09368 -26.602451 -4.5053892 
3562.5 -28.796144 -114.74495 -0.84977051 -144.42936 -0.84977051 -144.42936 -26.144698 -4.2188778 
3581.25 -27.989276 -122.01611 -0.85930465 -147.78136 -0.85930465 -147.78136 -25.685066 -4.2903689 
3600 -27.22151 -128.60654 -0.86910228 -151.14993 -0.86910228 -151.14993 -25.231442 -4.6916585 
3618.75 -26.500529 -134.65296 -0.87915538 -154.53531 -0.87915538 -154.53531 -24.790006 -5.3911671 
3637.5 -25.829531 -140.26645 -0.88945289 -157.93778 -0.88945289 -157.93778 -24.365499 -6.3566281 
3656.25 -25.209206 -145.53543 -0.89998073 -161.35765 -0.89998073 -161.35765 -23.96151 -7.5567341 
3675 -24.638945 -150.52993 -0.91072193 -164.79523 -0.91072193 -164.79523 -23.580752 -8.9620204 
3693.75 -24.117544 -155.30543 -0.92165678 -168.25091 -0.92165678 -168.25091 -23.225279 -10.545231 
3712.5 -23.643617 -159.90623 -0.93276311 -171.72507 -0.93276311 -171.72507 -22.89668 -12.281355 
3731.25 -23.215834 -164.36806 -0.94401666 -175.21817 -0.94401666 -175.21817 -22.596226 -14.147463 
3750 -22.83305 -168.7201 -0.95539155 -178.73069 -0.95539155 -178.73069 -22.324989 -16.122429 
3768.75 -22.494389 -172.98655 -0.96686085 177.73681 -0.96686085 177.73681 -22.083929 -18.186582 
3787.5 -22.199285 -177.18785 -0.9783973 174.18374 -0.9783973 174.18374 -21.873973 -20.321328 
3806.25 -21.94752 178.65839 -0.98997408 170.60944 -0.98997408 170.60944 -21.696069 -22.50873 
3825 -21.73925 174.53659 -1.0015657 167.01317 -1.0015657 167.01317 -21.551234 -24.731065 
3843.75 -21.57504 170.43256 -1.0131492 163.39415 -1.0131492 163.39415 -21.440593 -26.970339 
3862.5 -21.455904 166.333 -1.0247051 159.7515 -1.0247051 159.7515 -21.365411 -29.20773 
3881.25 -21.383358 162.2249 -1.0362185 156.08431 -1.0362185 156.08431 -21.327118 -31.422952 
3900 -21.359495 158.09507 -1.0476811 152.39156 -1.0476811 152.39156 -21.327327 -33.593481 
3918.75 -21.387083 153.92952 -1.0590915 148.67218 -1.0590915 148.67218 -21.367839 -35.693605 
3937.5 -21.469696 149.71275 -1.0704579 144.92502 -1.0704579 144.92502 -21.450632 -37.693217 
3956.25 -21.611904 145.42685 -1.0817983 141.14889 -1.0817983 141.14889 -21.577815 -39.55628 
3975 -21.819516 141.05015 -1.0931431 137.34251 -1.0931431 137.34251 -21.751532 -41.238834 
3993.75 -22.099935 136.55543 -1.1045358 133.50457 -1.1045358 133.50457 -21.973765 -42.686437 
4012.5 -22.462649 131.90697 -1.1160344 129.63371 -1.1160344 129.63371 -22.24598 -43.830917 
4031.25 -22.919933 127.05597 -1.1277127 125.72853 -1.1277127 125.72853 -22.568499 -44.58643 
4050 -23.487871 121.93284 -1.1396613 121.78763 -1.1396613 121.78763 -22.939411 -44.845143 
4068.75 -24.187846 116.43368 -1.1519877 117.80959 -1.1519877 117.80959 -23.352763 -44.473645 
4087.5 -25.048697 110.39521 -1.1648171 113.79302 -1.1648171 113.79302 -23.795674 -43.313065 
4106.25 -26.109631 103.54534 -1.1782918 109.73654 -1.1782918 109.73654 -24.244176 -41.189379 
4125 -27.423071 95.399125 -1.1925701 105.63883 -1.1925701 105.63883 -24.658291 -37.945461 
4143.75 -29.051549 85.026193 -1.2078252 101.49865 -1.2078252 101.49865 -24.978968 -33.508552 
4162.5 -31.026696 70.532521 -1.2242424 97.314844 -1.2242424 97.314844 -25.132798 -27.991407 
4181.25 -33.123474 48.302471 -1.2420161 93.086352 -1.2420161 93.086352 -25.050949 -21.776217 
4200 -34.204495 15.508609 -1.2613454 88.812251 -1.2613454 88.812251 -24.698515 -15.48107 
4218.75 -32.918788 -18.495102 -1.2824291 84.49175 -1.2824291 84.49175 -24.09347 -9.7678097 
4237.5 -30.353233 -42.385601 -1.3054591 80.124194 -1.3054591 80.124194 -23.297101 -5.1158568 
4256.25 -27.817677 -57.939203 -1.3306138 75.70907 -1.3306138 75.70907 -22.385438 -1.7281808 
4275 -25.625793 -69.016525 -1.3580496 71.245985 -1.3580496 71.245985 -21.425181 0.41516215 
4293.75 -23.763124 -77.726476 -1.3878926 66.734647 -1.3878926 66.734647 -20.464374 1.4527474 
4312.5 -22.168664 -85.099865 -1.4202293 62.17482 -1.4202293 62.17482 -19.533524 1.5601739 
4331.25 -20.789343 -91.666528 -1.4550977 57.566272 -1.4550977 57.566272 -18.650322 0.90660108 
4350 -19.585579 -97.718842 -1.4924787 52.908693 -1.4924787 52.908693 -17.824235 -0.36179351 
4368.75 -18.528736 -103.4289 -1.5322882 48.201601 -1.5322882 48.201601 -17.059857 -2.1245932 
4387.5 -17.598151 -108.90362 -1.5743713 43.444222 -1.5743713 43.444222 -16.359106 -4.2843694 
4406.25 -16.778922 -114.21247 -1.6184988 38.635344 -1.6184988 38.635344 -15.722573 -6.7623477 
4425 -16.0604 -119.40223 -1.6643665 33.773152 -1.6643665 33.773152 -15.150344 -9.4941206 
4443.75 -15.435208 -124.50538 -1.7115989 28.855034 -1.7115989 28.855034 -14.642514 -12.425897 
4462.5 -14.898632 -129.54493 -1.7597587 23.877362 -1.7597587 23.877362 -14.199516 -15.511301 
4481.25 -14.448286 -134.53734 -1.8083623 18.835257 -1.8083623 18.835257 -13.822369 -18.70855 
4500 -14.083999 -139.49411 -1.856904 13.72232 -1.856904 13.72232 -13.512892 -21.977757 
4518.75 -13.807909 -144.42249 -1.9048906 8.5303549 -1.9048906 8.5303549 -13.273912 -25.278033 
4537.5 -13.624776 -149.32536 -1.9518891 3.2490686 -1.9518891 3.2490686 -13.109496 -28.563972 
4556.25 -13.542582 -154.19993 -1.9975907 -2.1342254 -1.9975907 -2.1342254 -13.025203 -31.780891 
4575 -13.573526 -159.03505 -2.0418961 -7.6348946 -2.0418961 -7.6348946 -13.028339 -34.857889 
4593.75 -13.73564 -163.8056 -2.0850266 -13.271231 -2.0850266 -13.271231 -13.128113 -37.697169 
4612.5 -14.05544 -168.46162 -2.1276675 -19.064598 -2.1276675 -19.064598 -13.335449 -40.157099 
4631.25 -14.572403 -172.90628 -2.1711496 -25.039413 -2.1711496 -25.039413 -13.661784 -42.025089 
4650 -15.346834 -176.9478 -2.2176739 -31.222821 -2.2176739 -31.222821 -14.115162 -42.975227 
4668.75 -16.474278 179.81639 -2.2705771 -37.643907 -2.2705771 -37.643907 -14.689499 -42.509669 
4687.5 -18.11154 178.32016 -2.3346263 -44.332193 -2.3346263 -44.332193 -15.33825 -39.912469 
4706.25 -20.50601 -178.91646 -2.4163093 -51.315137 -2.4163093 -51.315137 -15.921665 -34.362094 
4725 -23.752651 -163.98202 -2.5240539 -58.614377 -2.5240539 -58.614377 -16.153003 -25.582927 
4743.75 -25.017568 -124.15654 -2.6682683 -66.240606 -2.6682683 -66.240606 -15.694596 -15.078019 
4762.5 -21.078758 -93.693358 -2.8610554 -74.187388 -2.8610554 -74.187388 -14.485251 -5.9832551 
4781.25 -16.914182 -85.835345 -3.1154518 -82.424891 -3.1154518 -82.424891 -12.828928 -0.50848058 
4800 -13.700321 -86.682851 -3.4441204 -90.89536 -3.4441204 -90.89536 -11.075923 1.2134223 
4818.75 -11.207554 -90.957024 -3.8576113 -99.512632 -3.8576113 -99.512632 -9.4303235 0.039768811 
4837.5 -9.2332109 -96.803823 -4.3625588 -108.16752 -4.3625588 -108.16752 -7.9743614 -3.1109553 
4856.25 -7.6506893 -103.39544 -4.960361 -116.73907 -4.960361 -116.73907 -6.7278893 -7.5200258 
4875 -6.3764232 -110.27957 -5.6468229 -125.10917 -5.6468229 -125.10917 -5.6829735 -12.66691 
4893.75 -5.3497078 -117.17781 -6.4129016 -133.17639 -6.4129016 -133.17639 -4.819775 -18.183475 
4912.5 -4.5229683 -123.91266 -7.2462673 -140.86525 -7.2462673 -140.86525 -4.1139606 -23.815412 
4931.25 -3.8573892 -130.37497 -8.1331405 -148.12938 -8.1331405 -148.12938 -3.5405892 -29.393854 
4950 -3.3209557 -136.50463 -9.0599038 -154.9493 -9.0599038 -154.9493 -3.0762963 -34.813409 
4968.75 -2.8874134 -142.27622 -10.014213 -161.32703 -10.014213 -161.32703 -2.700432 -40.01442 
4987.5 -2.5354932 -147.68772 -10.985573 -167.27972 -10.985573 -167.27972 -2.395482 -44.968766 
5006.25 -2.2481822 -152.75177 -11.965488 -172.83377 -11.965488 -172.83377 -2.1470247 -49.668973 
5025 -2.0120142 -157.48929 -12.947348 -178.02024 -12.947348 -178.02024 -1.9434294 -54.12027 
5043.75 -1.8164088 -161.92513 -13.926176 177.12841 -13.926176 177.12841 -1.7754465 -58.335096 
5062.5 -1.6530891 -166.08521 -14.898335 172.58042 -14.898335 172.58042 -1.6357838 -62.329467 
5081.25 -1.5155904 -169.99485 -15.861254 168.30593 -15.861254 168.30593 -1.5187192 -66.120688 
5100 -1.3988605 -173.67785 -16.813178 164.27759 -16.813178 164.27759 -1.4197697 -69.725994 
5118.75 -1.2989424 -177.15601 -17.752969 160.47073 -17.752969 160.47073 -1.335421 -73.161778 
5137.5 -1.2127251 179.55097 -18.679953 156.86335 -18.679953 156.86335 -1.2629121 -76.44322 
5156.25 -1.1377522 176.42549 -19.593786 153.43599 -19.593786 153.43599 -1.2000654 -79.584136 
5175 -1.0720736 173.45188 -20.494374 150.17142 -20.494374 150.17142 -1.1451568 -82.59697 
5193.75 -1.0141325 170.61628 -21.38179 147.05451 -21.38179 147.05451 -1.0968137 -85.492856 
5212.5 -0.96267864 167.9064 -22.256233 144.07189 -22.256233 144.07189 -1.0539379 -88.281721 
5231.25 -0.91670171 165.31137 -23.11798 141.2118 -23.11798 141.2118 -1.0156456 -90.972402 
5250 -0.87538015 162.82154 -23.967366 138.46384 -23.967366 138.46384 -0.98122133 -93.572763 
5268.75 -0.83804171 160.42838 -24.804756 135.81881 -24.804756 135.81881 -0.95008274 -96.089805 
5287.5 -0.80413294 158.12427 -25.630535 133.26856 -25.630535 133.26856 -0.92175279 -98.529773 
5306.25 -0.77319533 155.90244 -26.445097 130.80581 -26.445097 130.80581 -0.89583852 -100.89824 
5325 -0.74484677 153.75683 -27.248834 128.42411 -27.248834 128.42411 -0.87201439 -103.20021 
5343.75 -0.71876692 151.68201 -28.042132 126.11766 -28.042132 126.11766 -0.85000915 -105.44016 
5362.5 -0.69468571 149.6731 -28.825371 123.88128 -28.825371 123.88128 -0.82959552 -107.62212 
5381.25 -0.67237412 147.72571 -29.598918 121.71028 -29.598918 121.71028 -0.81058206 -109.74973 
5400 -0.65163694 145.83586 -30.363126 119.60046 -30.363126 119.60046 -0.79280666 -111.82628 
5418.75 -0.6323069 143.99995 -31.118336 117.548 -31.118336 117.548 -0.7761313 -113.85475 
5437.5 -0.61423991 142.21471 -31.864873 115.54945 -31.864873 115.54945 -0.76043797 -115.83787 
5456.25 -0.59731129 140.47717 -32.603051 113.60165 -32.603051 113.60165 -0.74562517 -117.7781 
5475 -0.58141262 138.78459 -33.333167 111.70173 -33.333167 111.70173 -0.7316053 -119.67771 
5493.75 -0.56644918 137.13449 -34.055506 109.84707 -34.055506 109.84707 -0.71830234 -121.53877 
5512.5 -0.5523379 135.52459 -34.770338 108.03526 -34.770338 108.03526 -0.70565008 -123.36318 
5531.25 -0.5390056 133.95277 -35.477922 106.26409 -35.477922 106.26409 -0.69359056 -125.15271 
5550 -0.52638755 132.4171 -36.178505 104.53152 -36.178505 104.53152 -0.6820729 -126.90897 
5568.75 -0.5144263 130.91579 -36.872322 102.83568 -36.872322 102.83568 -0.67105221 -128.63345 
5587.5 -0.50307065 129.44718 -37.559596 101.17481 -37.559596 101.17481 -0.66048877 -130.32756 
5606.25 -0.49227481 128.00973 -38.240541 99.547325 -38.240541 99.547325 -0.65034728 -131.99256 
5625 -0.48199773 126.60201 -38.915361 97.951711 -38.915361 97.951711 -0.64059628 -133.62967 
5643.75 -0.47220246 125.2227 -39.584251 96.386581 -39.584251 96.386581 -0.63120763 -135.24001 
5662.5 -0.46285562 123.87054 -40.247397 94.850639 -40.247397 94.850639 -0.62215609 -136.82462 
5681.25 -0.45392702 122.54438 -40.904976 93.342672 -40.904976 93.342672 -0.61341893 -138.38447 
5700 -0.44538925 121.24314 -41.557158 91.86155 -41.557158 91.86155 -0.60497565 -139.92048 
5718.75 -0.43721735 119.9658 -42.204107 90.406211 -42.204107 90.406211 -0.59680769 -141.43352 
5737.5 -0.42938856 118.7114 -42.845977 88.975662 -42.845977 88.975662 -0.58889819 -142.9244 
5756.25 -0.42188204 117.47905 -43.482918 87.568967 -43.482918 87.568967 -0.58123183 -144.39387 
5775 -0.41467871 116.2679 -44.115074 86.185249 -44.115074 86.185249 -0.57379462 -145.84265 
5793.75 -0.40776103 115.07716 -44.74258 84.823679 -44.74258 84.823679 -0.56657378 -147.27143 
5812.5 -0.40111285 113.90609 -45.365571 83.483478 -45.365571 83.483478 -0.55955757 -148.68084 
5831.25 -0.39471926 112.75396 -45.984171 82.163907 -45.984171 82.163907 -0.55273525 -150.07149 
5850 -0.38856651 111.62011 -46.598504 80.864272 -46.598504 80.864272 -0.5460969 -151.44396 
5868.75 -0.38264184 110.50391 -47.208686 79.583911 -47.208686 79.583911 -0.53963338 -152.7988 